V -t * -v 1.0a5 -a 0
A -t * -n 1 -p 0 -o 0x7fffffff -c 30 -a 1
A -t * -h 1 -m 1073741823 -s 0
n -t * -a 4 -s 4 -S UP -v circle -c black -i black
n -t * -a 0 -s 0 -S UP -v circle -c black -i black
n -t * -a 1 -s 1 -S UP -v circle -c black -i black
n -t * -a 2 -s 2 -S UP -v circle -c black -i black
n -t * -a 3 -s 3 -S UP -v circle -c black -i black
l -t * -s 0 -d 1 -S UP -r 3000000 -D 0.01 -c black
l -t * -s 1 -d 2 -S UP -r 300000 -D 0.5 -c black
l -t * -s 2 -d 3 -S UP -r 300000 -D 0.5 -c black
l -t * -s 3 -d 4 -S UP -r 3000000 -D 0.050000000000000003 -c black
+ -t 0.5 -s 0 -d 1 -p tcp -e 40 -c 0 -i 0 -a 0 -x {0.0 4.0 0 ------- null}
- -t 0.5 -s 0 -d 1 -p tcp -e 40 -c 0 -i 0 -a 0 -x {0.0 4.0 0 ------- null}
h -t 0.5 -s 0 -d 1 -p tcp -e 40 -c 0 -i 0 -a 0 -x {0.0 4.0 -1 ------- null}
r -t 0.510106666666667 -s 0 -d 1 -p tcp -e 40 -c 0 -i 0 -a 0 -x {0.0 4.0 0 ------- null}
+ -t 0.510106666666667 -s 1 -d 2 -p tcp -e 40 -c 0 -i 0 -a 0 -x {0.0 4.0 0 ------- null}
- -t 0.510106666666667 -s 1 -d 2 -p tcp -e 40 -c 0 -i 0 -a 0 -x {0.0 4.0 0 ------- null}
h -t 0.510106666666667 -s 1 -d 2 -p tcp -e 40 -c 0 -i 0 -a 0 -x {0.0 4.0 -1 ------- null}
r -t 1.01117333333333 -s 1 -d 2 -p tcp -e 40 -c 0 -i 0 -a 0 -x {0.0 4.0 0 ------- null}
+ -t 1.01117333333333 -s 2 -d 3 -p tcp -e 40 -c 0 -i 0 -a 0 -x {0.0 4.0 0 ------- null}
- -t 1.01117333333333 -s 2 -d 3 -p tcp -e 40 -c 0 -i 0 -a 0 -x {0.0 4.0 0 ------- null}
h -t 1.01117333333333 -s 2 -d 3 -p tcp -e 40 -c 0 -i 0 -a 0 -x {0.0 4.0 -1 ------- null}
r -t 1.51224 -s 2 -d 3 -p tcp -e 40 -c 0 -i 0 -a 0 -x {0.0 4.0 0 ------- null}
+ -t 1.51224 -s 3 -d 4 -p tcp -e 40 -c 0 -i 0 -a 0 -x {0.0 4.0 0 ------- null}
- -t 1.51224 -s 3 -d 4 -p tcp -e 40 -c 0 -i 0 -a 0 -x {0.0 4.0 0 ------- null}
h -t 1.51224 -s 3 -d 4 -p tcp -e 40 -c 0 -i 0 -a 0 -x {0.0 4.0 -1 ------- null}
r -t 1.56234666666667 -s 3 -d 4 -p tcp -e 40 -c 0 -i 0 -a 0 -x {0.0 4.0 0 ------- null}
+ -t 1.56234666666667 -s 4 -d 3 -p ack -e 40 -c 0 -i 1 -a 0 -x {4.0 0.0 0 ------- null}
- -t 1.56234666666667 -s 4 -d 3 -p ack -e 40 -c 0 -i 1 -a 0 -x {4.0 0.0 0 ------- null}
h -t 1.56234666666667 -s 4 -d 3 -p ack -e 40 -c 0 -i 1 -a 0 -x {4.0 0.0 -1 ------- null}
r -t 1.61245333333333 -s 4 -d 3 -p ack -e 40 -c 0 -i 1 -a 0 -x {4.0 0.0 0 ------- null}
+ -t 1.61245333333333 -s 3 -d 2 -p ack -e 40 -c 0 -i 1 -a 0 -x {4.0 0.0 0 ------- null}
- -t 1.61245333333333 -s 3 -d 2 -p ack -e 40 -c 0 -i 1 -a 0 -x {4.0 0.0 0 ------- null}
h -t 1.61245333333333 -s 3 -d 2 -p ack -e 40 -c 0 -i 1 -a 0 -x {4.0 0.0 -1 ------- null}
r -t 2.11352 -s 3 -d 2 -p ack -e 40 -c 0 -i 1 -a 0 -x {4.0 0.0 0 ------- null}
+ -t 2.11352 -s 2 -d 1 -p ack -e 40 -c 0 -i 1 -a 0 -x {4.0 0.0 0 ------- null}
- -t 2.11352 -s 2 -d 1 -p ack -e 40 -c 0 -i 1 -a 0 -x {4.0 0.0 0 ------- null}
h -t 2.11352 -s 2 -d 1 -p ack -e 40 -c 0 -i 1 -a 0 -x {4.0 0.0 -1 ------- null}
r -t 2.61458666666667 -s 2 -d 1 -p ack -e 40 -c 0 -i 1 -a 0 -x {4.0 0.0 0 ------- null}
+ -t 2.61458666666667 -s 1 -d 0 -p ack -e 40 -c 0 -i 1 -a 0 -x {4.0 0.0 0 ------- null}
- -t 2.61458666666667 -s 1 -d 0 -p ack -e 40 -c 0 -i 1 -a 0 -x {4.0 0.0 0 ------- null}
h -t 2.61458666666667 -s 1 -d 0 -p ack -e 40 -c 0 -i 1 -a 0 -x {4.0 0.0 -1 ------- null}
r -t 2.62469333333333 -s 1 -d 0 -p ack -e 40 -c 0 -i 1 -a 0 -x {4.0 0.0 0 ------- null}
+ -t 2.62469333333333 -s 0 -d 1 -p tcp -e 1040 -c 0 -i 2 -a 0 -x {0.0 4.0 1 ------- null}
- -t 2.62469333333333 -s 0 -d 1 -p tcp -e 1040 -c 0 -i 2 -a 0 -x {0.0 4.0 1 ------- null}
h -t 2.62469333333333 -s 0 -d 1 -p tcp -e 1040 -c 0 -i 2 -a 0 -x {0.0 4.0 -1 ------- null}
+ -t 2.62469333333333 -s 0 -d 1 -p tcp -e 1040 -c 0 -i 3 -a 0 -x {0.0 4.0 2 ------- null}
- -t 2.62746666666667 -s 0 -d 1 -p tcp -e 1040 -c 0 -i 3 -a 0 -x {0.0 4.0 2 ------- null}
h -t 2.62746666666667 -s 0 -d 1 -p tcp -e 1040 -c 0 -i 3 -a 0 -x {0.0 4.0 -1 ------- null}
r -t 2.63746666666667 -s 0 -d 1 -p tcp -e 1040 -c 0 -i 2 -a 0 -x {0.0 4.0 1 ------- null}
+ -t 2.63746666666667 -s 1 -d 2 -p tcp -e 1040 -c 0 -i 2 -a 0 -x {0.0 4.0 1 ------- null}
- -t 2.63746666666667 -s 1 -d 2 -p tcp -e 1040 -c 0 -i 2 -a 0 -x {0.0 4.0 1 ------- null}
h -t 2.63746666666667 -s 1 -d 2 -p tcp -e 1040 -c 0 -i 2 -a 0 -x {0.0 4.0 -1 ------- null}
r -t 2.64024 -s 0 -d 1 -p tcp -e 1040 -c 0 -i 3 -a 0 -x {0.0 4.0 2 ------- null}
+ -t 2.64024 -s 1 -d 2 -p tcp -e 1040 -c 0 -i 3 -a 0 -x {0.0 4.0 2 ------- null}
- -t 2.6652 -s 1 -d 2 -p tcp -e 1040 -c 0 -i 3 -a 0 -x {0.0 4.0 2 ------- null}
h -t 2.6652 -s 1 -d 2 -p tcp -e 1040 -c 0 -i 3 -a 0 -x {0.0 4.0 -1 ------- null}
r -t 3.1652 -s 1 -d 2 -p tcp -e 1040 -c 0 -i 2 -a 0 -x {0.0 4.0 1 ------- null}
+ -t 3.1652 -s 2 -d 3 -p tcp -e 1040 -c 0 -i 2 -a 0 -x {0.0 4.0 1 ------- null}
- -t 3.1652 -s 2 -d 3 -p tcp -e 1040 -c 0 -i 2 -a 0 -x {0.0 4.0 1 ------- null}
h -t 3.1652 -s 2 -d 3 -p tcp -e 1040 -c 0 -i 2 -a 0 -x {0.0 4.0 -1 ------- null}
r -t 3.19293333333333 -s 1 -d 2 -p tcp -e 1040 -c 0 -i 3 -a 0 -x {0.0 4.0 2 ------- null}
+ -t 3.19293333333333 -s 2 -d 3 -p tcp -e 1040 -c 0 -i 3 -a 0 -x {0.0 4.0 2 ------- null}
- -t 3.19293333333333 -s 2 -d 3 -p tcp -e 1040 -c 0 -i 3 -a 0 -x {0.0 4.0 2 ------- null}
h -t 3.19293333333333 -s 2 -d 3 -p tcp -e 1040 -c 0 -i 3 -a 0 -x {0.0 4.0 -1 ------- null}
r -t 3.69293333333333 -s 2 -d 3 -p tcp -e 1040 -c 0 -i 2 -a 0 -x {0.0 4.0 1 ------- null}
+ -t 3.69293333333333 -s 3 -d 4 -p tcp -e 1040 -c 0 -i 2 -a 0 -x {0.0 4.0 1 ------- null}
- -t 3.69293333333333 -s 3 -d 4 -p tcp -e 1040 -c 0 -i 2 -a 0 -x {0.0 4.0 1 ------- null}
h -t 3.69293333333333 -s 3 -d 4 -p tcp -e 1040 -c 0 -i 2 -a 0 -x {0.0 4.0 -1 ------- null}
r -t 3.72066666666667 -s 2 -d 3 -p tcp -e 1040 -c 0 -i 3 -a 0 -x {0.0 4.0 2 ------- null}
+ -t 3.72066666666667 -s 3 -d 4 -p tcp -e 1040 -c 0 -i 3 -a 0 -x {0.0 4.0 2 ------- null}
- -t 3.72066666666667 -s 3 -d 4 -p tcp -e 1040 -c 0 -i 3 -a 0 -x {0.0 4.0 2 ------- null}
h -t 3.72066666666667 -s 3 -d 4 -p tcp -e 1040 -c 0 -i 3 -a 0 -x {0.0 4.0 -1 ------- null}
r -t 3.74570666666667 -s 3 -d 4 -p tcp -e 1040 -c 0 -i 2 -a 0 -x {0.0 4.0 1 ------- null}
+ -t 3.74570666666667 -s 4 -d 3 -p ack -e 40 -c 0 -i 4 -a 0 -x {4.0 0.0 1 ------- null}
- -t 3.74570666666667 -s 4 -d 3 -p ack -e 40 -c 0 -i 4 -a 0 -x {4.0 0.0 1 ------- null}
h -t 3.74570666666667 -s 4 -d 3 -p ack -e 40 -c 0 -i 4 -a 0 -x {4.0 0.0 -1 ------- null}
r -t 3.77344 -s 3 -d 4 -p tcp -e 1040 -c 0 -i 3 -a 0 -x {0.0 4.0 2 ------- null}
+ -t 3.77344 -s 4 -d 3 -p ack -e 40 -c 0 -i 5 -a 0 -x {4.0 0.0 2 ------- null}
- -t 3.77344 -s 4 -d 3 -p ack -e 40 -c 0 -i 5 -a 0 -x {4.0 0.0 2 ------- null}
h -t 3.77344 -s 4 -d 3 -p ack -e 40 -c 0 -i 5 -a 0 -x {4.0 0.0 -1 ------- null}
r -t 3.79581333333333 -s 4 -d 3 -p ack -e 40 -c 0 -i 4 -a 0 -x {4.0 0.0 1 ------- null}
+ -t 3.79581333333333 -s 3 -d 2 -p ack -e 40 -c 0 -i 4 -a 0 -x {4.0 0.0 1 ------- null}
- -t 3.79581333333333 -s 3 -d 2 -p ack -e 40 -c 0 -i 4 -a 0 -x {4.0 0.0 1 ------- null}
h -t 3.79581333333333 -s 3 -d 2 -p ack -e 40 -c 0 -i 4 -a 0 -x {4.0 0.0 -1 ------- null}
r -t 3.82354666666667 -s 4 -d 3 -p ack -e 40 -c 0 -i 5 -a 0 -x {4.0 0.0 2 ------- null}
+ -t 3.82354666666667 -s 3 -d 2 -p ack -e 40 -c 0 -i 5 -a 0 -x {4.0 0.0 2 ------- null}
- -t 3.82354666666667 -s 3 -d 2 -p ack -e 40 -c 0 -i 5 -a 0 -x {4.0 0.0 2 ------- null}
h -t 3.82354666666667 -s 3 -d 2 -p ack -e 40 -c 0 -i 5 -a 0 -x {4.0 0.0 -1 ------- null}
r -t 4.29688 -s 3 -d 2 -p ack -e 40 -c 0 -i 4 -a 0 -x {4.0 0.0 1 ------- null}
+ -t 4.29688 -s 2 -d 1 -p ack -e 40 -c 0 -i 4 -a 0 -x {4.0 0.0 1 ------- null}
- -t 4.29688 -s 2 -d 1 -p ack -e 40 -c 0 -i 4 -a 0 -x {4.0 0.0 1 ------- null}
h -t 4.29688 -s 2 -d 1 -p ack -e 40 -c 0 -i 4 -a 0 -x {4.0 0.0 -1 ------- null}
r -t 4.32461333333333 -s 3 -d 2 -p ack -e 40 -c 0 -i 5 -a 0 -x {4.0 0.0 2 ------- null}
+ -t 4.32461333333333 -s 2 -d 1 -p ack -e 40 -c 0 -i 5 -a 0 -x {4.0 0.0 2 ------- null}
- -t 4.32461333333333 -s 2 -d 1 -p ack -e 40 -c 0 -i 5 -a 0 -x {4.0 0.0 2 ------- null}
h -t 4.32461333333333 -s 2 -d 1 -p ack -e 40 -c 0 -i 5 -a 0 -x {4.0 0.0 -1 ------- null}
r -t 4.79794666666667 -s 2 -d 1 -p ack -e 40 -c 0 -i 4 -a 0 -x {4.0 0.0 1 ------- null}
+ -t 4.79794666666667 -s 1 -d 0 -p ack -e 40 -c 0 -i 4 -a 0 -x {4.0 0.0 1 ------- null}
- -t 4.79794666666667 -s 1 -d 0 -p ack -e 40 -c 0 -i 4 -a 0 -x {4.0 0.0 1 ------- null}
h -t 4.79794666666667 -s 1 -d 0 -p ack -e 40 -c 0 -i 4 -a 0 -x {4.0 0.0 -1 ------- null}
r -t 4.80805333333333 -s 1 -d 0 -p ack -e 40 -c 0 -i 4 -a 0 -x {4.0 0.0 1 ------- null}
+ -t 4.80805333333333 -s 0 -d 1 -p tcp -e 1040 -c 0 -i 6 -a 0 -x {0.0 4.0 3 ------- null}
- -t 4.80805333333333 -s 0 -d 1 -p tcp -e 1040 -c 0 -i 6 -a 0 -x {0.0 4.0 3 ------- null}
h -t 4.80805333333333 -s 0 -d 1 -p tcp -e 1040 -c 0 -i 6 -a 0 -x {0.0 4.0 -1 ------- null}
+ -t 4.80805333333333 -s 0 -d 1 -p tcp -e 1040 -c 0 -i 7 -a 0 -x {0.0 4.0 4 ------- null}
- -t 4.81082666666667 -s 0 -d 1 -p tcp -e 1040 -c 0 -i 7 -a 0 -x {0.0 4.0 4 ------- null}
h -t 4.81082666666667 -s 0 -d 1 -p tcp -e 1040 -c 0 -i 7 -a 0 -x {0.0 4.0 -1 ------- null}
r -t 4.82082666666667 -s 0 -d 1 -p tcp -e 1040 -c 0 -i 6 -a 0 -x {0.0 4.0 3 ------- null}
+ -t 4.82082666666667 -s 1 -d 2 -p tcp -e 1040 -c 0 -i 6 -a 0 -x {0.0 4.0 3 ------- null}
- -t 4.82082666666667 -s 1 -d 2 -p tcp -e 1040 -c 0 -i 6 -a 0 -x {0.0 4.0 3 ------- null}
h -t 4.82082666666667 -s 1 -d 2 -p tcp -e 1040 -c 0 -i 6 -a 0 -x {0.0 4.0 -1 ------- null}
r -t 4.8236 -s 0 -d 1 -p tcp -e 1040 -c 0 -i 7 -a 0 -x {0.0 4.0 4 ------- null}
+ -t 4.8236 -s 1 -d 2 -p tcp -e 1040 -c 0 -i 7 -a 0 -x {0.0 4.0 4 ------- null}
r -t 4.82568 -s 2 -d 1 -p ack -e 40 -c 0 -i 5 -a 0 -x {4.0 0.0 2 ------- null}
+ -t 4.82568 -s 1 -d 0 -p ack -e 40 -c 0 -i 5 -a 0 -x {4.0 0.0 2 ------- null}
- -t 4.82568 -s 1 -d 0 -p ack -e 40 -c 0 -i 5 -a 0 -x {4.0 0.0 2 ------- null}
h -t 4.82568 -s 1 -d 0 -p ack -e 40 -c 0 -i 5 -a 0 -x {4.0 0.0 -1 ------- null}
r -t 4.83578666666667 -s 1 -d 0 -p ack -e 40 -c 0 -i 5 -a 0 -x {4.0 0.0 2 ------- null}
+ -t 4.83578666666667 -s 0 -d 1 -p tcp -e 1040 -c 0 -i 8 -a 0 -x {0.0 4.0 5 ------- null}
- -t 4.83578666666667 -s 0 -d 1 -p tcp -e 1040 -c 0 -i 8 -a 0 -x {0.0 4.0 5 ------- null}
h -t 4.83578666666667 -s 0 -d 1 -p tcp -e 1040 -c 0 -i 8 -a 0 -x {0.0 4.0 -1 ------- null}
+ -t 4.83578666666667 -s 0 -d 1 -p tcp -e 1040 -c 0 -i 9 -a 0 -x {0.0 4.0 6 ------- null}
- -t 4.83856 -s 0 -d 1 -p tcp -e 1040 -c 0 -i 9 -a 0 -x {0.0 4.0 6 ------- null}
h -t 4.83856 -s 0 -d 1 -p tcp -e 1040 -c 0 -i 9 -a 0 -x {0.0 4.0 -1 ------- null}
- -t 4.84856 -s 1 -d 2 -p tcp -e 1040 -c 0 -i 7 -a 0 -x {0.0 4.0 4 ------- null}
h -t 4.84856 -s 1 -d 2 -p tcp -e 1040 -c 0 -i 7 -a 0 -x {0.0 4.0 -1 ------- null}
r -t 4.84856 -s 0 -d 1 -p tcp -e 1040 -c 0 -i 8 -a 0 -x {0.0 4.0 5 ------- null}
+ -t 4.84856 -s 1 -d 2 -p tcp -e 1040 -c 0 -i 8 -a 0 -x {0.0 4.0 5 ------- null}
r -t 4.85133333333333 -s 0 -d 1 -p tcp -e 1040 -c 0 -i 9 -a 0 -x {0.0 4.0 6 ------- null}
+ -t 4.85133333333333 -s 1 -d 2 -p tcp -e 1040 -c 0 -i 9 -a 0 -x {0.0 4.0 6 ------- null}
- -t 4.87629333333333 -s 1 -d 2 -p tcp -e 1040 -c 0 -i 8 -a 0 -x {0.0 4.0 5 ------- null}
h -t 4.87629333333333 -s 1 -d 2 -p tcp -e 1040 -c 0 -i 8 -a 0 -x {0.0 4.0 -1 ------- null}
- -t 4.90402666666667 -s 1 -d 2 -p tcp -e 1040 -c 0 -i 9 -a 0 -x {0.0 4.0 6 ------- null}
h -t 4.90402666666667 -s 1 -d 2 -p tcp -e 1040 -c 0 -i 9 -a 0 -x {0.0 4.0 -1 ------- null}
r -t 5.34856 -s 1 -d 2 -p tcp -e 1040 -c 0 -i 6 -a 0 -x {0.0 4.0 3 ------- null}
+ -t 5.34856 -s 2 -d 3 -p tcp -e 1040 -c 0 -i 6 -a 0 -x {0.0 4.0 3 ------- null}
- -t 5.34856 -s 2 -d 3 -p tcp -e 1040 -c 0 -i 6 -a 0 -x {0.0 4.0 3 ------- null}
h -t 5.34856 -s 2 -d 3 -p tcp -e 1040 -c 0 -i 6 -a 0 -x {0.0 4.0 -1 ------- null}
r -t 5.37629333333333 -s 1 -d 2 -p tcp -e 1040 -c 0 -i 7 -a 0 -x {0.0 4.0 4 ------- null}
+ -t 5.37629333333333 -s 2 -d 3 -p tcp -e 1040 -c 0 -i 7 -a 0 -x {0.0 4.0 4 ------- null}
- -t 5.37629333333333 -s 2 -d 3 -p tcp -e 1040 -c 0 -i 7 -a 0 -x {0.0 4.0 4 ------- null}
h -t 5.37629333333333 -s 2 -d 3 -p tcp -e 1040 -c 0 -i 7 -a 0 -x {0.0 4.0 -1 ------- null}
r -t 5.40402666666667 -s 1 -d 2 -p tcp -e 1040 -c 0 -i 8 -a 0 -x {0.0 4.0 5 ------- null}
+ -t 5.40402666666667 -s 2 -d 3 -p tcp -e 1040 -c 0 -i 8 -a 0 -x {0.0 4.0 5 ------- null}
- -t 5.40402666666667 -s 2 -d 3 -p tcp -e 1040 -c 0 -i 8 -a 0 -x {0.0 4.0 5 ------- null}
h -t 5.40402666666667 -s 2 -d 3 -p tcp -e 1040 -c 0 -i 8 -a 0 -x {0.0 4.0 -1 ------- null}
r -t 5.43176 -s 1 -d 2 -p tcp -e 1040 -c 0 -i 9 -a 0 -x {0.0 4.0 6 ------- null}
+ -t 5.43176 -s 2 -d 3 -p tcp -e 1040 -c 0 -i 9 -a 0 -x {0.0 4.0 6 ------- null}
- -t 5.43176 -s 2 -d 3 -p tcp -e 1040 -c 0 -i 9 -a 0 -x {0.0 4.0 6 ------- null}
h -t 5.43176 -s 2 -d 3 -p tcp -e 1040 -c 0 -i 9 -a 0 -x {0.0 4.0 -1 ------- null}
r -t 5.87629333333333 -s 2 -d 3 -p tcp -e 1040 -c 0 -i 6 -a 0 -x {0.0 4.0 3 ------- null}
+ -t 5.87629333333333 -s 3 -d 4 -p tcp -e 1040 -c 0 -i 6 -a 0 -x {0.0 4.0 3 ------- null}
- -t 5.87629333333333 -s 3 -d 4 -p tcp -e 1040 -c 0 -i 6 -a 0 -x {0.0 4.0 3 ------- null}
h -t 5.87629333333333 -s 3 -d 4 -p tcp -e 1040 -c 0 -i 6 -a 0 -x {0.0 4.0 -1 ------- null}
r -t 5.90402666666667 -s 2 -d 3 -p tcp -e 1040 -c 0 -i 7 -a 0 -x {0.0 4.0 4 ------- null}
+ -t 5.90402666666667 -s 3 -d 4 -p tcp -e 1040 -c 0 -i 7 -a 0 -x {0.0 4.0 4 ------- null}
- -t 5.90402666666667 -s 3 -d 4 -p tcp -e 1040 -c 0 -i 7 -a 0 -x {0.0 4.0 4 ------- null}
h -t 5.90402666666667 -s 3 -d 4 -p tcp -e 1040 -c 0 -i 7 -a 0 -x {0.0 4.0 -1 ------- null}
r -t 5.92906666666667 -s 3 -d 4 -p tcp -e 1040 -c 0 -i 6 -a 0 -x {0.0 4.0 3 ------- null}
+ -t 5.92906666666667 -s 4 -d 3 -p ack -e 40 -c 0 -i 10 -a 0 -x {4.0 0.0 3 ------- null}
- -t 5.92906666666667 -s 4 -d 3 -p ack -e 40 -c 0 -i 10 -a 0 -x {4.0 0.0 3 ------- null}
h -t 5.92906666666667 -s 4 -d 3 -p ack -e 40 -c 0 -i 10 -a 0 -x {4.0 0.0 -1 ------- null}
r -t 5.93176 -s 2 -d 3 -p tcp -e 1040 -c 0 -i 8 -a 0 -x {0.0 4.0 5 ------- null}
+ -t 5.93176 -s 3 -d 4 -p tcp -e 1040 -c 0 -i 8 -a 0 -x {0.0 4.0 5 ------- null}
- -t 5.93176 -s 3 -d 4 -p tcp -e 1040 -c 0 -i 8 -a 0 -x {0.0 4.0 5 ------- null}
h -t 5.93176 -s 3 -d 4 -p tcp -e 1040 -c 0 -i 8 -a 0 -x {0.0 4.0 -1 ------- null}
r -t 5.9568 -s 3 -d 4 -p tcp -e 1040 -c 0 -i 7 -a 0 -x {0.0 4.0 4 ------- null}
+ -t 5.9568 -s 4 -d 3 -p ack -e 40 -c 0 -i 11 -a 0 -x {4.0 0.0 4 ------- null}
- -t 5.9568 -s 4 -d 3 -p ack -e 40 -c 0 -i 11 -a 0 -x {4.0 0.0 4 ------- null}
h -t 5.9568 -s 4 -d 3 -p ack -e 40 -c 0 -i 11 -a 0 -x {4.0 0.0 -1 ------- null}
r -t 5.95949333333333 -s 2 -d 3 -p tcp -e 1040 -c 0 -i 9 -a 0 -x {0.0 4.0 6 ------- null}
+ -t 5.95949333333333 -s 3 -d 4 -p tcp -e 1040 -c 0 -i 9 -a 0 -x {0.0 4.0 6 ------- null}
- -t 5.95949333333333 -s 3 -d 4 -p tcp -e 1040 -c 0 -i 9 -a 0 -x {0.0 4.0 6 ------- null}
h -t 5.95949333333333 -s 3 -d 4 -p tcp -e 1040 -c 0 -i 9 -a 0 -x {0.0 4.0 -1 ------- null}
r -t 5.97917333333333 -s 4 -d 3 -p ack -e 40 -c 0 -i 10 -a 0 -x {4.0 0.0 3 ------- null}
+ -t 5.97917333333333 -s 3 -d 2 -p ack -e 40 -c 0 -i 10 -a 0 -x {4.0 0.0 3 ------- null}
- -t 5.97917333333333 -s 3 -d 2 -p ack -e 40 -c 0 -i 10 -a 0 -x {4.0 0.0 3 ------- null}
h -t 5.97917333333333 -s 3 -d 2 -p ack -e 40 -c 0 -i 10 -a 0 -x {4.0 0.0 -1 ------- null}
r -t 5.98453333333333 -s 3 -d 4 -p tcp -e 1040 -c 0 -i 8 -a 0 -x {0.0 4.0 5 ------- null}
+ -t 5.98453333333333 -s 4 -d 3 -p ack -e 40 -c 0 -i 12 -a 0 -x {4.0 0.0 5 ------- null}
- -t 5.98453333333333 -s 4 -d 3 -p ack -e 40 -c 0 -i 12 -a 0 -x {4.0 0.0 5 ------- null}
h -t 5.98453333333333 -s 4 -d 3 -p ack -e 40 -c 0 -i 12 -a 0 -x {4.0 0.0 -1 ------- null}
r -t 6.00690666666667 -s 4 -d 3 -p ack -e 40 -c 0 -i 11 -a 0 -x {4.0 0.0 4 ------- null}
+ -t 6.00690666666667 -s 3 -d 2 -p ack -e 40 -c 0 -i 11 -a 0 -x {4.0 0.0 4 ------- null}
- -t 6.00690666666667 -s 3 -d 2 -p ack -e 40 -c 0 -i 11 -a 0 -x {4.0 0.0 4 ------- null}
h -t 6.00690666666667 -s 3 -d 2 -p ack -e 40 -c 0 -i 11 -a 0 -x {4.0 0.0 -1 ------- null}
r -t 6.01226666666667 -s 3 -d 4 -p tcp -e 1040 -c 0 -i 9 -a 0 -x {0.0 4.0 6 ------- null}
+ -t 6.01226666666667 -s 4 -d 3 -p ack -e 40 -c 0 -i 13 -a 0 -x {4.0 0.0 6 ------- null}
- -t 6.01226666666667 -s 4 -d 3 -p ack -e 40 -c 0 -i 13 -a 0 -x {4.0 0.0 6 ------- null}
h -t 6.01226666666667 -s 4 -d 3 -p ack -e 40 -c 0 -i 13 -a 0 -x {4.0 0.0 -1 ------- null}
r -t 6.03464 -s 4 -d 3 -p ack -e 40 -c 0 -i 12 -a 0 -x {4.0 0.0 5 ------- null}
+ -t 6.03464 -s 3 -d 2 -p ack -e 40 -c 0 -i 12 -a 0 -x {4.0 0.0 5 ------- null}
- -t 6.03464 -s 3 -d 2 -p ack -e 40 -c 0 -i 12 -a 0 -x {4.0 0.0 5 ------- null}
h -t 6.03464 -s 3 -d 2 -p ack -e 40 -c 0 -i 12 -a 0 -x {4.0 0.0 -1 ------- null}
r -t 6.06237333333333 -s 4 -d 3 -p ack -e 40 -c 0 -i 13 -a 0 -x {4.0 0.0 6 ------- null}
+ -t 6.06237333333333 -s 3 -d 2 -p ack -e 40 -c 0 -i 13 -a 0 -x {4.0 0.0 6 ------- null}
- -t 6.06237333333333 -s 3 -d 2 -p ack -e 40 -c 0 -i 13 -a 0 -x {4.0 0.0 6 ------- null}
h -t 6.06237333333333 -s 3 -d 2 -p ack -e 40 -c 0 -i 13 -a 0 -x {4.0 0.0 -1 ------- null}
r -t 6.48024 -s 3 -d 2 -p ack -e 40 -c 0 -i 10 -a 0 -x {4.0 0.0 3 ------- null}
+ -t 6.48024 -s 2 -d 1 -p ack -e 40 -c 0 -i 10 -a 0 -x {4.0 0.0 3 ------- null}
- -t 6.48024 -s 2 -d 1 -p ack -e 40 -c 0 -i 10 -a 0 -x {4.0 0.0 3 ------- null}
h -t 6.48024 -s 2 -d 1 -p ack -e 40 -c 0 -i 10 -a 0 -x {4.0 0.0 -1 ------- null}
r -t 6.50797333333333 -s 3 -d 2 -p ack -e 40 -c 0 -i 11 -a 0 -x {4.0 0.0 4 ------- null}
+ -t 6.50797333333333 -s 2 -d 1 -p ack -e 40 -c 0 -i 11 -a 0 -x {4.0 0.0 4 ------- null}
- -t 6.50797333333333 -s 2 -d 1 -p ack -e 40 -c 0 -i 11 -a 0 -x {4.0 0.0 4 ------- null}
h -t 6.50797333333333 -s 2 -d 1 -p ack -e 40 -c 0 -i 11 -a 0 -x {4.0 0.0 -1 ------- null}
r -t 6.53570666666667 -s 3 -d 2 -p ack -e 40 -c 0 -i 12 -a 0 -x {4.0 0.0 5 ------- null}
+ -t 6.53570666666667 -s 2 -d 1 -p ack -e 40 -c 0 -i 12 -a 0 -x {4.0 0.0 5 ------- null}
- -t 6.53570666666667 -s 2 -d 1 -p ack -e 40 -c 0 -i 12 -a 0 -x {4.0 0.0 5 ------- null}
h -t 6.53570666666667 -s 2 -d 1 -p ack -e 40 -c 0 -i 12 -a 0 -x {4.0 0.0 -1 ------- null}
r -t 6.56344 -s 3 -d 2 -p ack -e 40 -c 0 -i 13 -a 0 -x {4.0 0.0 6 ------- null}
+ -t 6.56344 -s 2 -d 1 -p ack -e 40 -c 0 -i 13 -a 0 -x {4.0 0.0 6 ------- null}
- -t 6.56344 -s 2 -d 1 -p ack -e 40 -c 0 -i 13 -a 0 -x {4.0 0.0 6 ------- null}
h -t 6.56344 -s 2 -d 1 -p ack -e 40 -c 0 -i 13 -a 0 -x {4.0 0.0 -1 ------- null}
r -t 6.98130666666667 -s 2 -d 1 -p ack -e 40 -c 0 -i 10 -a 0 -x {4.0 0.0 3 ------- null}
+ -t 6.98130666666667 -s 1 -d 0 -p ack -e 40 -c 0 -i 10 -a 0 -x {4.0 0.0 3 ------- null}
- -t 6.98130666666667 -s 1 -d 0 -p ack -e 40 -c 0 -i 10 -a 0 -x {4.0 0.0 3 ------- null}
h -t 6.98130666666667 -s 1 -d 0 -p ack -e 40 -c 0 -i 10 -a 0 -x {4.0 0.0 -1 ------- null}
r -t 6.99141333333333 -s 1 -d 0 -p ack -e 40 -c 0 -i 10 -a 0 -x {4.0 0.0 3 ------- null}
+ -t 6.99141333333333 -s 0 -d 1 -p tcp -e 1040 -c 0 -i 14 -a 0 -x {0.0 4.0 7 ------- null}
- -t 6.99141333333333 -s 0 -d 1 -p tcp -e 1040 -c 0 -i 14 -a 0 -x {0.0 4.0 7 ------- null}
h -t 6.99141333333333 -s 0 -d 1 -p tcp -e 1040 -c 0 -i 14 -a 0 -x {0.0 4.0 -1 ------- null}
+ -t 6.99141333333333 -s 0 -d 1 -p tcp -e 1040 -c 0 -i 15 -a 0 -x {0.0 4.0 8 ------- null}
- -t 6.99418666666667 -s 0 -d 1 -p tcp -e 1040 -c 0 -i 15 -a 0 -x {0.0 4.0 8 ------- null}
h -t 6.99418666666667 -s 0 -d 1 -p tcp -e 1040 -c 0 -i 15 -a 0 -x {0.0 4.0 -1 ------- null}
r -t 7.00418666666667 -s 0 -d 1 -p tcp -e 1040 -c 0 -i 14 -a 0 -x {0.0 4.0 7 ------- null}
+ -t 7.00418666666667 -s 1 -d 2 -p tcp -e 1040 -c 0 -i 14 -a 0 -x {0.0 4.0 7 ------- null}
- -t 7.00418666666667 -s 1 -d 2 -p tcp -e 1040 -c 0 -i 14 -a 0 -x {0.0 4.0 7 ------- null}
h -t 7.00418666666667 -s 1 -d 2 -p tcp -e 1040 -c 0 -i 14 -a 0 -x {0.0 4.0 -1 ------- null}
r -t 7.00696 -s 0 -d 1 -p tcp -e 1040 -c 0 -i 15 -a 0 -x {0.0 4.0 8 ------- null}
+ -t 7.00696 -s 1 -d 2 -p tcp -e 1040 -c 0 -i 15 -a 0 -x {0.0 4.0 8 ------- null}
r -t 7.00904 -s 2 -d 1 -p ack -e 40 -c 0 -i 11 -a 0 -x {4.0 0.0 4 ------- null}
+ -t 7.00904 -s 1 -d 0 -p ack -e 40 -c 0 -i 11 -a 0 -x {4.0 0.0 4 ------- null}
- -t 7.00904 -s 1 -d 0 -p ack -e 40 -c 0 -i 11 -a 0 -x {4.0 0.0 4 ------- null}
h -t 7.00904 -s 1 -d 0 -p ack -e 40 -c 0 -i 11 -a 0 -x {4.0 0.0 -1 ------- null}
r -t 7.01914666666667 -s 1 -d 0 -p ack -e 40 -c 0 -i 11 -a 0 -x {4.0 0.0 4 ------- null}
+ -t 7.01914666666667 -s 0 -d 1 -p tcp -e 1040 -c 0 -i 16 -a 0 -x {0.0 4.0 9 ------- null}
- -t 7.01914666666667 -s 0 -d 1 -p tcp -e 1040 -c 0 -i 16 -a 0 -x {0.0 4.0 9 ------- null}
h -t 7.01914666666667 -s 0 -d 1 -p tcp -e 1040 -c 0 -i 16 -a 0 -x {0.0 4.0 -1 ------- null}
+ -t 7.01914666666667 -s 0 -d 1 -p tcp -e 1040 -c 0 -i 17 -a 0 -x {0.0 4.0 10 ------- null}
- -t 7.02192 -s 0 -d 1 -p tcp -e 1040 -c 0 -i 17 -a 0 -x {0.0 4.0 10 ------- null}
h -t 7.02192 -s 0 -d 1 -p tcp -e 1040 -c 0 -i 17 -a 0 -x {0.0 4.0 -1 ------- null}
r -t 7.03192 -s 0 -d 1 -p tcp -e 1040 -c 0 -i 16 -a 0 -x {0.0 4.0 9 ------- null}
+ -t 7.03192 -s 1 -d 2 -p tcp -e 1040 -c 0 -i 16 -a 0 -x {0.0 4.0 9 ------- null}
- -t 7.03192 -s 1 -d 2 -p tcp -e 1040 -c 0 -i 15 -a 0 -x {0.0 4.0 8 ------- null}
h -t 7.03192 -s 1 -d 2 -p tcp -e 1040 -c 0 -i 15 -a 0 -x {0.0 4.0 -1 ------- null}
r -t 7.03469333333333 -s 0 -d 1 -p tcp -e 1040 -c 0 -i 17 -a 0 -x {0.0 4.0 10 ------- null}
+ -t 7.03469333333333 -s 1 -d 2 -p tcp -e 1040 -c 0 -i 17 -a 0 -x {0.0 4.0 10 ------- null}
r -t 7.03677333333333 -s 2 -d 1 -p ack -e 40 -c 0 -i 12 -a 0 -x {4.0 0.0 5 ------- null}
+ -t 7.03677333333333 -s 1 -d 0 -p ack -e 40 -c 0 -i 12 -a 0 -x {4.0 0.0 5 ------- null}
- -t 7.03677333333333 -s 1 -d 0 -p ack -e 40 -c 0 -i 12 -a 0 -x {4.0 0.0 5 ------- null}
h -t 7.03677333333333 -s 1 -d 0 -p ack -e 40 -c 0 -i 12 -a 0 -x {4.0 0.0 -1 ------- null}
r -t 7.04688 -s 1 -d 0 -p ack -e 40 -c 0 -i 12 -a 0 -x {4.0 0.0 5 ------- null}
+ -t 7.04688 -s 0 -d 1 -p tcp -e 1040 -c 0 -i 18 -a 0 -x {0.0 4.0 11 ------- null}
- -t 7.04688 -s 0 -d 1 -p tcp -e 1040 -c 0 -i 18 -a 0 -x {0.0 4.0 11 ------- null}
h -t 7.04688 -s 0 -d 1 -p tcp -e 1040 -c 0 -i 18 -a 0 -x {0.0 4.0 -1 ------- null}
+ -t 7.04688 -s 0 -d 1 -p tcp -e 1040 -c 0 -i 19 -a 0 -x {0.0 4.0 12 ------- null}
- -t 7.04965333333333 -s 0 -d 1 -p tcp -e 1040 -c 0 -i 19 -a 0 -x {0.0 4.0 12 ------- null}
h -t 7.04965333333333 -s 0 -d 1 -p tcp -e 1040 -c 0 -i 19 -a 0 -x {0.0 4.0 -1 ------- null}
- -t 7.05965333333333 -s 1 -d 2 -p tcp -e 1040 -c 0 -i 16 -a 0 -x {0.0 4.0 9 ------- null}
h -t 7.05965333333333 -s 1 -d 2 -p tcp -e 1040 -c 0 -i 16 -a 0 -x {0.0 4.0 -1 ------- null}
r -t 7.05965333333333 -s 0 -d 1 -p tcp -e 1040 -c 0 -i 18 -a 0 -x {0.0 4.0 11 ------- null}
+ -t 7.05965333333333 -s 1 -d 2 -p tcp -e 1040 -c 0 -i 18 -a 0 -x {0.0 4.0 11 ------- null}
r -t 7.06242666666667 -s 0 -d 1 -p tcp -e 1040 -c 0 -i 19 -a 0 -x {0.0 4.0 12 ------- null}
+ -t 7.06242666666667 -s 1 -d 2 -p tcp -e 1040 -c 0 -i 19 -a 0 -x {0.0 4.0 12 ------- null}
r -t 7.06450666666667 -s 2 -d 1 -p ack -e 40 -c 0 -i 13 -a 0 -x {4.0 0.0 6 ------- null}
+ -t 7.06450666666667 -s 1 -d 0 -p ack -e 40 -c 0 -i 13 -a 0 -x {4.0 0.0 6 ------- null}
- -t 7.06450666666667 -s 1 -d 0 -p ack -e 40 -c 0 -i 13 -a 0 -x {4.0 0.0 6 ------- null}
h -t 7.06450666666667 -s 1 -d 0 -p ack -e 40 -c 0 -i 13 -a 0 -x {4.0 0.0 -1 ------- null}
r -t 7.07461333333333 -s 1 -d 0 -p ack -e 40 -c 0 -i 13 -a 0 -x {4.0 0.0 6 ------- null}
+ -t 7.07461333333333 -s 0 -d 1 -p tcp -e 1040 -c 0 -i 20 -a 0 -x {0.0 4.0 13 ------- null}
- -t 7.07461333333333 -s 0 -d 1 -p tcp -e 1040 -c 0 -i 20 -a 0 -x {0.0 4.0 13 ------- null}
h -t 7.07461333333333 -s 0 -d 1 -p tcp -e 1040 -c 0 -i 20 -a 0 -x {0.0 4.0 -1 ------- null}
+ -t 7.07461333333333 -s 0 -d 1 -p tcp -e 1040 -c 0 -i 21 -a 0 -x {0.0 4.0 14 ------- null}
- -t 7.07738666666667 -s 0 -d 1 -p tcp -e 1040 -c 0 -i 21 -a 0 -x {0.0 4.0 14 ------- null}
h -t 7.07738666666667 -s 0 -d 1 -p tcp -e 1040 -c 0 -i 21 -a 0 -x {0.0 4.0 -1 ------- null}
r -t 7.08738666666667 -s 0 -d 1 -p tcp -e 1040 -c 0 -i 20 -a 0 -x {0.0 4.0 13 ------- null}
+ -t 7.08738666666667 -s 1 -d 2 -p tcp -e 1040 -c 0 -i 20 -a 0 -x {0.0 4.0 13 ------- null}
- -t 7.08738666666667 -s 1 -d 2 -p tcp -e 1040 -c 0 -i 17 -a 0 -x {0.0 4.0 10 ------- null}
h -t 7.08738666666667 -s 1 -d 2 -p tcp -e 1040 -c 0 -i 17 -a 0 -x {0.0 4.0 -1 ------- null}
r -t 7.09016 -s 0 -d 1 -p tcp -e 1040 -c 0 -i 21 -a 0 -x {0.0 4.0 14 ------- null}
+ -t 7.09016 -s 1 -d 2 -p tcp -e 1040 -c 0 -i 21 -a 0 -x {0.0 4.0 14 ------- null}
- -t 7.11512 -s 1 -d 2 -p tcp -e 1040 -c 0 -i 18 -a 0 -x {0.0 4.0 11 ------- null}
h -t 7.11512 -s 1 -d 2 -p tcp -e 1040 -c 0 -i 18 -a 0 -x {0.0 4.0 -1 ------- null}
- -t 7.14285333333333 -s 1 -d 2 -p tcp -e 1040 -c 0 -i 19 -a 0 -x {0.0 4.0 12 ------- null}
h -t 7.14285333333333 -s 1 -d 2 -p tcp -e 1040 -c 0 -i 19 -a 0 -x {0.0 4.0 -1 ------- null}
- -t 7.17058666666667 -s 1 -d 2 -p tcp -e 1040 -c 0 -i 20 -a 0 -x {0.0 4.0 13 ------- null}
h -t 7.17058666666667 -s 1 -d 2 -p tcp -e 1040 -c 0 -i 20 -a 0 -x {0.0 4.0 -1 ------- null}
- -t 7.19832 -s 1 -d 2 -p tcp -e 1040 -c 0 -i 21 -a 0 -x {0.0 4.0 14 ------- null}
h -t 7.19832 -s 1 -d 2 -p tcp -e 1040 -c 0 -i 21 -a 0 -x {0.0 4.0 -1 ------- null}
r -t 7.53192 -s 1 -d 2 -p tcp -e 1040 -c 0 -i 14 -a 0 -x {0.0 4.0 7 ------- null}
+ -t 7.53192 -s 2 -d 3 -p tcp -e 1040 -c 0 -i 14 -a 0 -x {0.0 4.0 7 ------- null}
- -t 7.53192 -s 2 -d 3 -p tcp -e 1040 -c 0 -i 14 -a 0 -x {0.0 4.0 7 ------- null}
h -t 7.53192 -s 2 -d 3 -p tcp -e 1040 -c 0 -i 14 -a 0 -x {0.0 4.0 -1 ------- null}
r -t 7.55965333333333 -s 1 -d 2 -p tcp -e 1040 -c 0 -i 15 -a 0 -x {0.0 4.0 8 ------- null}
+ -t 7.55965333333333 -s 2 -d 3 -p tcp -e 1040 -c 0 -i 15 -a 0 -x {0.0 4.0 8 ------- null}
- -t 7.55965333333333 -s 2 -d 3 -p tcp -e 1040 -c 0 -i 15 -a 0 -x {0.0 4.0 8 ------- null}
h -t 7.55965333333333 -s 2 -d 3 -p tcp -e 1040 -c 0 -i 15 -a 0 -x {0.0 4.0 -1 ------- null}
r -t 7.58738666666667 -s 1 -d 2 -p tcp -e 1040 -c 0 -i 16 -a 0 -x {0.0 4.0 9 ------- null}
+ -t 7.58738666666667 -s 2 -d 3 -p tcp -e 1040 -c 0 -i 16 -a 0 -x {0.0 4.0 9 ------- null}
- -t 7.58738666666667 -s 2 -d 3 -p tcp -e 1040 -c 0 -i 16 -a 0 -x {0.0 4.0 9 ------- null}
h -t 7.58738666666667 -s 2 -d 3 -p tcp -e 1040 -c 0 -i 16 -a 0 -x {0.0 4.0 -1 ------- null}
r -t 7.61512 -s 1 -d 2 -p tcp -e 1040 -c 0 -i 17 -a 0 -x {0.0 4.0 10 ------- null}
+ -t 7.61512 -s 2 -d 3 -p tcp -e 1040 -c 0 -i 17 -a 0 -x {0.0 4.0 10 ------- null}
- -t 7.61512 -s 2 -d 3 -p tcp -e 1040 -c 0 -i 17 -a 0 -x {0.0 4.0 10 ------- null}
h -t 7.61512 -s 2 -d 3 -p tcp -e 1040 -c 0 -i 17 -a 0 -x {0.0 4.0 -1 ------- null}
r -t 7.64285333333333 -s 1 -d 2 -p tcp -e 1040 -c 0 -i 18 -a 0 -x {0.0 4.0 11 ------- null}
+ -t 7.64285333333333 -s 2 -d 3 -p tcp -e 1040 -c 0 -i 18 -a 0 -x {0.0 4.0 11 ------- null}
- -t 7.64285333333333 -s 2 -d 3 -p tcp -e 1040 -c 0 -i 18 -a 0 -x {0.0 4.0 11 ------- null}
h -t 7.64285333333333 -s 2 -d 3 -p tcp -e 1040 -c 0 -i 18 -a 0 -x {0.0 4.0 -1 ------- null}
r -t 7.67058666666667 -s 1 -d 2 -p tcp -e 1040 -c 0 -i 19 -a 0 -x {0.0 4.0 12 ------- null}
+ -t 7.67058666666667 -s 2 -d 3 -p tcp -e 1040 -c 0 -i 19 -a 0 -x {0.0 4.0 12 ------- null}
- -t 7.67058666666667 -s 2 -d 3 -p tcp -e 1040 -c 0 -i 19 -a 0 -x {0.0 4.0 12 ------- null}
h -t 7.67058666666667 -s 2 -d 3 -p tcp -e 1040 -c 0 -i 19 -a 0 -x {0.0 4.0 -1 ------- null}
r -t 7.69832 -s 1 -d 2 -p tcp -e 1040 -c 0 -i 20 -a 0 -x {0.0 4.0 13 ------- null}
+ -t 7.69832 -s 2 -d 3 -p tcp -e 1040 -c 0 -i 20 -a 0 -x {0.0 4.0 13 ------- null}
- -t 7.69832 -s 2 -d 3 -p tcp -e 1040 -c 0 -i 20 -a 0 -x {0.0 4.0 13 ------- null}
h -t 7.69832 -s 2 -d 3 -p tcp -e 1040 -c 0 -i 20 -a 0 -x {0.0 4.0 -1 ------- null}
r -t 7.72605333333333 -s 1 -d 2 -p tcp -e 1040 -c 0 -i 21 -a 0 -x {0.0 4.0 14 ------- null}
+ -t 7.72605333333333 -s 2 -d 3 -p tcp -e 1040 -c 0 -i 21 -a 0 -x {0.0 4.0 14 ------- null}
- -t 7.72605333333333 -s 2 -d 3 -p tcp -e 1040 -c 0 -i 21 -a 0 -x {0.0 4.0 14 ------- null}
h -t 7.72605333333333 -s 2 -d 3 -p tcp -e 1040 -c 0 -i 21 -a 0 -x {0.0 4.0 -1 ------- null}
r -t 8.05965333333334 -s 2 -d 3 -p tcp -e 1040 -c 0 -i 14 -a 0 -x {0.0 4.0 7 ------- null}
+ -t 8.05965333333334 -s 3 -d 4 -p tcp -e 1040 -c 0 -i 14 -a 0 -x {0.0 4.0 7 ------- null}
- -t 8.05965333333334 -s 3 -d 4 -p tcp -e 1040 -c 0 -i 14 -a 0 -x {0.0 4.0 7 ------- null}
h -t 8.05965333333334 -s 3 -d 4 -p tcp -e 1040 -c 0 -i 14 -a 0 -x {0.0 4.0 -1 ------- null}
r -t 8.08738666666667 -s 2 -d 3 -p tcp -e 1040 -c 0 -i 15 -a 0 -x {0.0 4.0 8 ------- null}
+ -t 8.08738666666667 -s 3 -d 4 -p tcp -e 1040 -c 0 -i 15 -a 0 -x {0.0 4.0 8 ------- null}
- -t 8.08738666666667 -s 3 -d 4 -p tcp -e 1040 -c 0 -i 15 -a 0 -x {0.0 4.0 8 ------- null}
h -t 8.08738666666667 -s 3 -d 4 -p tcp -e 1040 -c 0 -i 15 -a 0 -x {0.0 4.0 -1 ------- null}
r -t 8.11242666666667 -s 3 -d 4 -p tcp -e 1040 -c 0 -i 14 -a 0 -x {0.0 4.0 7 ------- null}
+ -t 8.11242666666667 -s 4 -d 3 -p ack -e 40 -c 0 -i 22 -a 0 -x {4.0 0.0 7 ------- null}
- -t 8.11242666666667 -s 4 -d 3 -p ack -e 40 -c 0 -i 22 -a 0 -x {4.0 0.0 7 ------- null}
h -t 8.11242666666667 -s 4 -d 3 -p ack -e 40 -c 0 -i 22 -a 0 -x {4.0 0.0 -1 ------- null}
r -t 8.11512 -s 2 -d 3 -p tcp -e 1040 -c 0 -i 16 -a 0 -x {0.0 4.0 9 ------- null}
+ -t 8.11512 -s 3 -d 4 -p tcp -e 1040 -c 0 -i 16 -a 0 -x {0.0 4.0 9 ------- null}
- -t 8.11512 -s 3 -d 4 -p tcp -e 1040 -c 0 -i 16 -a 0 -x {0.0 4.0 9 ------- null}
h -t 8.11512 -s 3 -d 4 -p tcp -e 1040 -c 0 -i 16 -a 0 -x {0.0 4.0 -1 ------- null}
r -t 8.14016 -s 3 -d 4 -p tcp -e 1040 -c 0 -i 15 -a 0 -x {0.0 4.0 8 ------- null}
+ -t 8.14016 -s 4 -d 3 -p ack -e 40 -c 0 -i 23 -a 0 -x {4.0 0.0 8 ------- null}
- -t 8.14016 -s 4 -d 3 -p ack -e 40 -c 0 -i 23 -a 0 -x {4.0 0.0 8 ------- null}
h -t 8.14016 -s 4 -d 3 -p ack -e 40 -c 0 -i 23 -a 0 -x {4.0 0.0 -1 ------- null}
r -t 8.14285333333333 -s 2 -d 3 -p tcp -e 1040 -c 0 -i 17 -a 0 -x {0.0 4.0 10 ------- null}
+ -t 8.14285333333333 -s 3 -d 4 -p tcp -e 1040 -c 0 -i 17 -a 0 -x {0.0 4.0 10 ------- null}
- -t 8.14285333333333 -s 3 -d 4 -p tcp -e 1040 -c 0 -i 17 -a 0 -x {0.0 4.0 10 ------- null}
h -t 8.14285333333333 -s 3 -d 4 -p tcp -e 1040 -c 0 -i 17 -a 0 -x {0.0 4.0 -1 ------- null}
r -t 8.16253333333333 -s 4 -d 3 -p ack -e 40 -c 0 -i 22 -a 0 -x {4.0 0.0 7 ------- null}